/*--------------------------------*- C++ -*----------------------------------*\
  =========                 |
  \\      /  F ield         | OpenFOAM: The Open Source CFD Toolbox
   \\    /   O peration     | Website:  https://openfoam.org
    \\  /    A nd           | Version:  13
     \\/     M anipulation  |
\*---------------------------------------------------------------------------*/
FoamFile
{
    format      ascii;
    class       volScalarField;
    location    "0";
    object      thicknessFraction;
}
// * * * * * * * * * * * * * * * * * * * * * * * * * * * * * * * * * * * * * //

dimensions      [];

internalField   uniform 0;

boundaryField
{
    inlet
    {
        type            fixedValue;
        value           uniform 0;
    }
    outlet
    {
        type            fixedValue;
        value           uniform 0;
    }
    front
    {
        type            fixedValue;
        value           nonuniform List<scalar> 0();
    }
    back
    {
        type            fixedValue;
        value           nonuniform List<scalar> 0();
    }
    top
    {
        type            fixedValue;
        value           uniform 0;
    }
    bottom
    {
        type            fixedValue;
        value           nonuniform List<scalar> 0();
    }
    walls
    {
        type            fixedValue;
        value           nonuniform List<scalar> 
5247
(
0
0
0
0
0
0
0
0
0
0
0
0
0
0
0
0
0
0
0
0
0
0
0
0
0
0
0
0
0
0
0
0
0
0
0
0
0
0
0
0
0
0
0
0
0
0
0
0
0
0
0
0
0
0
0
0
0
0
0
0
0
0
0
0
0
0
0
0
0
0
0
0
0
0
0
0
0
0
0
0
0
0
0
0
0
0
0
0
0
0
0
0
0
0
0
0
0
0
0
0
0
0
0
0
0
0
0
0
0
0
0
0
0
0
0
0
0
0
0
0
0
0
0
0
0
0
0
0
0
0
0
0
0
0
0
0
0
0
0
0
0
0
0
0
0
0
0
0
0
0
0
0
0
0
0
0
0
0
0
0
0
0
0
0
0
0
0
0
0
0
0
0
0
0
0
0
0
0
0
0
0
0
0
0
0
0
0
0
0
0
0
0
0
0
0
0
0
0
0
0
0
0
0
0
0
0
0
0
0
0
0
0
0
0
0
0
0
0
0
0
0
0
0
0
0
0
0
0
0
0
0
0
0
0
0
0
0
0
0
0
0
0
0
0
0
0
0
0
0
0
0
0
0
0
0
0
0
0
0
0
0
0
0
0
0
0
0
0
0
0
0
0
0
0
0
0
0
0
0
0
0
0
0
0
0
0
0
0
0
0
0
0
0
0
0
0
0
0
0
0
0
0
0
0
0
0
0
0
0
0
0
0
0
0
0
0
0
0
0
0
0
0
0
0
0
0
0
0
0
0
0
0
0
0
0
0
0
0
0
0
0
0
0
0
0
0
0
0
0
0
0
0
0
0
0
0
0
0
0
0
0
0
0
0
0
0
0
0
0
0
0
0
0
0
0
0
0
0
0
0
0
0
0
0
0
0
0
0
0
0
0
0
0
0
0
0
0
0
0
0
0
0
0
0
0
0
0
0
0
0
0
0
0
0
0
0
0
0
0
0
0
0
0
0
0
0
0
0
0
0
0
0
0
0
0
0
0
0
0
0
0
0
0
0
0
0
0
0
0
0
0
0
0
0
0
0
0
0
0
0
0
0
0
0
0
0
0
0
0
0
0
0
0
0
0
0
0
0
0
0
0
0
0
0
0
0
0
0
0
0
0
0
0
0
0
0
0
0
0
0
0
0
0
0
0
0
0
0
0
0
0
0
0
0
0
0
0
0
0
0
0
0
0
0
0
0
0
0
0
0
0
0
0
0
0
0
0
0
0
0
0
0
0
0
0
0
0
0
0
0
0
0
0
0
0
0
0
0
0
0
0
0
0
0
0
0
0
0
0
0
0
0
0
0
0.0798133
0.999999
0.832361
0.823389
0.83236
0.829476
0.823396
0.807196
0.807272
0.829476
0.812971
0.69469
0.841057
0.769751
0.812973
0.722742
0.705656
0.741053
0.70212
0.820699
0.694687
0.841057
0.769657
0.678672
0.70067
0.740649
0.702114
0.820701
0.916856
0.935811
0.899432
0.917763
0.916855
0.950438
0.951173
0.956507
0.949911
0.942732
0.935807
0.899431
0.917687
0.93698
0.94611
0.956173
0.949906
0.942735
0.992163
0.994581
0.989228
0.991268
0.992162
0.996485
0.996198
0.996355
0.99645
0.995623
0.99458
0.989228
0.991264
0.995137
0.99565
0.996327
0.99645
0.995624
0.974032
0.984332
0.975765
0.971393
0.97403
0.986643
0.979898
0.974198
0.986131
0.984017
0.98433
0.975765
0.971393
0.986603
0.979884
0.974197
0.986131
0.984018
0.801036
0.861969
0.818008
0.802191
0.801036
0.873471
0.828726
0.794735
0.868324
0.850791
0.861965
0.818008
0.802191
0.873473
0.82873
0.794734
0.868323
0.850794
0.965002
0.760772
0.854583
0.833472
0.965002
0.824194
0.848658
0.784541
0.986957
0.760772
0.854583
0.977706
0.833472
0.977725
0.824289
0.848787
0.78454
0.986957
0.850149
0.850149
0.89112
0.89112
0.887461
0.491138
0.839989
0.743979
0.0480638
0.828702
0.303377
0.938728
0.587522
0.587456
0.561222
0.575948
0.561051
0.561144
0.561076
0.575947
0.576631
0.587523
0.590371
0.587456
0.587455
0.590368
0.587454
0.576644
0.576589
0.561258
0.563276
0.561816
0.576734
0.5904
0.590368
0.576591
0.563348
0.58748
0.587454
0.829539
0.997904
0.832054
0.832436
0.829479
0.997901
0.806464
0.996808
0.820934
0.996895
0.986785
0.772772
0.806322
0.997106
0.806384
0.996802
0.988416
0.988401
0.98841
0.988406
0.806337
0.997105
0.823389
0.881437
0.772777
0.829541
0.997905
0.8814
0.829479
0.997901
0.832436
0.770214
0.771931
0.802583
0.802583
0.77193
0.832446
0.770219
0.832454
0.829477
0.9979
0.832308
0.88248
0.9979
0.772772
0.779635
0.793106
0.806462
0.997109
0.988428
0.988428
0.866677
0.866686
0.806689
0.99711
0.823465
0.881429
0.8813
0.832309
0.88248
0.823329
0.793109
0.77963
0.8295
0.997901
0.809149
0.749002
0.77162
0.802168
0.80246
0.77191
0.770219
0.832454
0.9979
0.820463
0.830325
0.769761
0.840931
0.805494
0.841041
0.767905
0.767871
0.805456
0.840922
0.813128
0.836966
0.820461
0.702141
0.866715
0.862183
0.74106
0.864654
0.878757
0.705627
0.878739
0.864595
0.72278
0.862123
0.866726
0.820464
0.757971
0.839008
0.846551
0.769761
0.805492
0.849868
0.832354
0.841035
0.767904
0.751643
0.796175
0.796196
0.833556
0.757975
0.839017
0.706477
0.832379
0.849877
0.80583
0.831908
0.669408
0.839093
0.839886
0.739355
0.856416
0.876339
0.705562
0.878206
0.864509
0.72278
0.862114
0.866726
0.846556
0.98318
0.917818
0.979861
0.964891
0.93578
0.972235
0.979707
0.98149
0.949961
0.985832
0.985833
0.956523
0.98619
0.987923
0.951127
0.987916
0.986167
0.950426
0.985808
0.985825
0.9425
0.939166
0.98193
0.983244
0.917817
0.979859
0.972387
0.940216
0.981412
0.976289
0.89939
0.964948
0.969648
0.969662
0.980705
0.939174
0.981935
0.929343
0.940229
0.976308
0.981421
0.980287
0.938717
0.980904
0.981657
0.954975
0.984197
0.987319
0.951076
0.987793
0.98615
0.950427
0.985806
0.985825
0.983246
0.995854
0.992029
0.995615
0.991095
0.991794
0.992884
0.996454
0.99666
0.996503
0.996359
0.99485
0.993381
0.996189
0.993376
0.994844
0.996519
0.996534
0.996874
0.995849
0.995155
0.995112
0.995787
0.995614
0.994382
0.994383
0.991544
0.988981
0.991857
0.990775
0.988695
0.988705
0.991094
0.99285
0.995156
0.995114
0.991557
0.994388
0.994624
0.995307
0.996386
0.99627
0.996202
0.994743
0.993354
0.996185
0.993372
0.994844
0.996519
0.996534
0.996874
0.995787
0.945733
0.947277
0.919079
0.980433
0.936165
0.985982
0.95302
0.950815
0.974208
0.933517
0.917544
0.979897
0.917526
0.933542
0.987452
0.95123
0.955031
0.945713
0.981735
0.93861
0.944905
0.947273
0.979841
0.972272
0.935846
0.917738
0.917092
0.964833
0.964851
0.899388
0.899419
0.915502
0.91349
0.919079
0.981739
0.938617
0.972298
0.917777
0.935859
0.985948
0.953017
0.950813
0.974206
0.933518
0.917545
0.979897
0.917526
0.93354
0.987452
0.951229
0.955031
0.944907
0.817553
0.852201
0.834931
0.85716
0.718866
0.716917
0.801484
0.777284
0.756648
0.723779
0.834972
0.815322
0.83719
0.867653
0.735025
0.72503
0.794756
0.783313
0.835017
0.828787
0.835004
0.783365
0.876526
0.725531
0.73714
0.825331
0.837791
0.755384
0.824601
0.805198
0.692429
0.767944
0.767858
0.838224
0.838244
0.834973
0.815322
0.837798
0.755387
0.767954
0.692425
0.867656
0.735028
0.725044
0.794758
0.783325
0.835019
0.828785
0.835003
0.783364
0.876525
0.72553
0.737141
0.824603
0.986997
0.766074
0.848773
0.848688
0.824597
0.986958
0.765611
0.832447
0.98046
0.822054
0.833137
0.832409
0.838729
0.838824
0.832408
0.980458
0.822053
0.980455
0.822024
0.986998
0.766075
0.745724
0.986964
0.765651
0.784401
0.848786
0.848675
0.848675
0.824583
0.986956
0.765609
0.864374
0.747671
0.76561
0.777212
0.834742
0.824408
0.833137
0.838824
0.948312
0.948344
0.834828
0.832408
0.980458
0.822048
0.745839
0.864373
0.747672
0.834752
0.824409
0.83486
0.986989
0.76597
0.78463
0.848673
0.824583
0.76561
0.8913
0.89112
0.8913
0.891141
0.89112
0.849469
0.850139
0.849469
0.891256
0.642363
0.13628
0.180329
0.91251
0.367524
0.739162
0.187966
0.85817
0.886167
0.429859
0.595564
0.440064
0.422744
0.580646
0.421284
0.582658
0.437481
0.60308
0.448586
0.594767
0.603474
0.449494
0.603508
0.449521
0.437497
0.603106
0.448606
0.594787
0.422754
0.580639
0.421277
0.582671
0.4298
0.595231
0.439736
0.4208
0.416853
0.426002
0.570438
0.275277
0.582766
0.433557
0.601069
0.446255
0.432574
0.60021
0.44544
0.421321
0.417205
0.578647
0.425346
0.569871
0.274957
0.581884
0.411127
0.409005
0.40895
0.562873
0.408948
0.411117
0.425987
0.570394
0.275253
0.582749
0.420795
0.416852
0.425352
0.569885
0.274966
0.58189
0.421323
0.417205
0.578649
0.42986
0.595565
0.433556
0.601069
0.446255
0.432574
0.60021
0.44544
0.4298
0.595231
0.439736
0.422748
0.58065
0.421286
0.582663
0.437486
0.603087
0.448591
0.594774
0.422754
0.58267
0.437496
0.603105
0.448606
0.594786
0.603482
0.449499
0.603507
0.44952
0.6035
0.449514
0.603475
0.449495
0.437491
0.603098
0.448601
0.59478
0.422749
0.580636
0.421275
0.582664
0.437482
0.60308
0.448587
0.594768
0.422743
0.580632
0.421272
0.582657
0.4298
0.595232
0.439738
0.432582
0.600213
0.445445
0.432577
0.600213
0.445448
0.429799
0.595233
0.439739
0.421355
0.41722
0.425404
0.569972
0.275029
0.581936
0.421229
0.417178
0.578532
0.425389
0.571105
0.275775
0.581885
0.563242
0.40938
0.411845
0.409948
0.564009
0.41007
0.564071
0.41012
0.411305
0.425978
0.57049
0.275487
0.582378
0.421685
0.417307
0.432584
0.600211
0.445418
0.432577
0.600213
0.445448
0.425404
0.571147
0.275799
0.581902
0.421236
0.417179
0.429822
0.59524
0.439731
0.422779
0.580665
0.582693
0.437517
0.603119
0.448622
0.594805
0.603517
0.449532
0.603474
0.449494
0.437481
0.60308
0.448586
0.594767
0.422743
0.580631
0.421271
0.582656
0.429799
0.595233
0.971476
0.895128
0.642277
0.728822
0.999999
0.999999
0.999998
0.999998
0.999998
0.999998
0.999999
0.971476
0.895128
0.72882
0.642276
0.642277
0.728822
0.642277
0.728822
0.999999
0.999999
0.999998
0.999998
0.999998
0.999998
0.999999
0.971476
0.89513
0.642277
0.728822
0.170824
0.163304
0.812349
1
0.8926
0.901572
0.999999
0.877006
0.812349
1
0.898976
0.84796
0.893229
0.865605
0.798591
0.813062
0.82021
0.901572
0.999999
0.877006
0.986578
0.85077
0.893703
0.865605
0.798591
0.813062
0.82021
0.170804
0.170825
0.170806
0.147707
0.170842
0.170822
0.820567
1
0.986577
0.850771
0.935474
0.799529
0.786454
0.664048
0.893702
0.996616
0.825441
0.999811
0.999999
0.893229
0.999811
0.999999
0.996606
0.82355
0.865605
0.798592
0.813063
0.898977
0.84796
0.653683
0.820209
1
0.892381
0.877007
1
0.999996
0.81177
0.999996
0.999994
0.877257
0.999996
1
0.901572
0.999999
0.901577
0.999999
0.901578
0.999999
0.877006
1
0.999996
0.892381
1
0.999996
0.820567
1
0.812149
1
0.999994
0.820314
1
0.986577
0.850771
0.935474
0.79953
0.786455
0.664048
0.865605
0.798592
0.813062
0.653681
0.893703
0.996616
0.825441
0.999811
0.999999
0.996606
0.823548
0.999811
0.999999
0.893229
0.999811
0.999999
0.996606
0.82355
0.893229
0.999811
0.999999
0.996606
0.82355
0.865605
0.798591
0.813062
0.898977
0.847961
0.653682
0.898977
0.847961
0.653682
0.820209
1
0.81177
1
0.811773
1
0.999996
0.999994
1
0.877257
0.999996
1
0.877139
0.999996
1
0.901578
0.999999
0.901734
0.999999
0.901728
0.999999
1
0.999996
0.81231
1
0.811773
1
0.999996
0.999994
0.87714
0.892497
0.999996
1
0.820503
1
0.935475
0.79953
0.786455
0.664051
0.996616
0.825443
0.999811
0.999999
0.893229
0.999811
0.999999
0.996606
0.823547
0.898977
0.847961
0.653681
1
0.994216
0.965
0.992664
0.999342
0.722556
0.868389
0.501962
0.591604
0.202212
0.584052
0.244999
0.205258
0.551379
0.180814
0.869549
0.432558
0.749135
0.929683
0.235703
0.651786
0.999998
0.999999
0.999999
0.999998
0.999998
1
0.999999
0.999998
0.999999
0.999999
0.999998
0.999998
0.999999
0.999998
0.999998
0.999999
0.999999
0.999998
0.999998
0.999999
0.999994
0.999996
1
0.999999
0.999997
0.999998
0.999996
0.999996
0.999993
0.999996
0.999993
0.999996
1
0.999999
0.999998
0.999999
0.999999
0.999998
0.999998
0.999999
1
0.999999
0.999997
0.999999
0.999999
0.999998
0.999998
0.999999
0.999999
0.999998
0.999998
0.999999
0.999994
0.999996
0.999999
0.999998
0.999998
0.999999
0.999998
0.994216
0.965
0.992664
0.999342
0.722556
0.868389
0.501962
0.591604
0.202212
0.869546
0.432553
0.749125
0.929673
0.23569
0.651752
0.584052
0.244999
0.205259
0.55138
0.180814
0.584052
0.244999
0.205258
0.551379
0.180814
0.869549
0.432558
0.749135
0.929683
0.584052
0.244999
0.205258
0.551379
0.180814
0.869549
0.432558
0.749135
0.929683
0.235703
0.651786
0.999998
0.999999
0.999998
0.999998
0.999999
0.999998
0.999998
0.999999
0.999999
0.999998
0.999998
0.999999
1
0.999999
0.999998
0.999999
0.999999
0.999998
0.999998
0.999994
0.999996
1
0.999999
0.999999
0.999999
0.999998
0.999998
0.999996
0.999996
0.999993
0.999996
0.999993
0.999996
1
0.999999
0.999999
0.999998
0.999999
0.999999
0.999998
0.999998
0.999999
0.999998
0.999998
0.999999
0.999998
1
0.999999
0.999997
0.999997
0.999999
0.999999
0.999999
0.999998
0.999998
0.999999
0.999999
0.999998
0.999998
0.999994
0.999996
0.994216
0.965001
0.992664
0.999342
0.722558
0.868389
0.501963
0.591606
0.202213
0.584051
0.244999
0.205258
0.551379
0.180814
0.869549
0.432558
0.749135
0.929683
0.235703
0.651786
0.221199
0.221199
0.998637
0.999999
0.933522
0.999948
1
1
1
0.998637
0.999999
0.933522
0.999948
1
1
1
0.270208
0.221189
0.270111
0.270165
0.270128
0.221189
0.22107
0.221189
0.270262
0.271546
0.270773
0.213601
0.221189
0.271586
0.999948
1
1
1
0.998634
0.999999
0.93251
0.999948
1
1
1
0.998634
0.999999
0.932509
0.999948
1
1
1
0.998634
0.999999
0.93251
0.999948
1
1
1
0.998634
0.999999
0.93251
0.998637
0.999999
0.933524
0.999948
1
1
1
0.999948
1
1
1
0.998634
0.999999
0.932508
0.981022
0.993329
0.963081
0.999981
0.999551
0.99997
0.999997
0.999998
0.999994
0.999981
0.99955
0.99997
0.999997
0.999998
0.999994
0.980952
0.993315
0.962994
0.999997
0.999995
0.999993
0.999983
0.999997
0.999995
0.999993
0.999983
0.999995
0.999997
0.999983
0.999993
0.999999
1
0.999999
1
0.999995
0.999997
0.999983
0.999993
0.981022
0.993329
0.963081
0.999981
0.999551
0.99997
0.999997
0.999998
0.999994
0.980951
0.993315
0.962993
0.999981
0.99955
0.99997
0.999997
0.999998
0.999994
0.999981
0.99955
0.99997
0.999997
0.999998
0.999994
0.980952
0.993315
0.962994
0.999981
0.99955
0.99997
0.999997
0.999998
0.999994
0.980952
0.993315
0.962994
0.999997
0.999995
0.999993
0.999983
0.999999
1
0.999999
1
0.999997
0.999995
0.999993
0.999983
0.999995
0.999997
0.999983
0.999993
0.999995
0.999997
0.999983
0.999993
0.981023
0.993329
0.963081
0.999981
0.999551
0.99997
0.999997
0.999998
0.999994
0.999981
0.99955
0.99997
0.999997
0.999998
0.999994
0.980951
0.993315
0.962993
0.775756
0.354967
0.789365
0.7894
0.582705
0.775756
0.354864
0.682146
0.332894
0.326641
0.540015
0.682147
0.332891
0.946187
0.946538
0.822995
0.933991
0.805649
0.933879
0.948724
0.815437
0.82457
0.938589
0.950274
0.826009
0.828347
0.944029
0.833087
0.94643
0.946193
0.946541
0.805872
0.93397
0.946054
0.948802
0.815733
0.824812
0.938694
0.946097
0.950059
0.826027
0.828361
0.944037
0.833087
0.94643
0.947523
0.869085
1
1
1
0.869085
1
0.696794
0.831199
0.856044
0.436869
0.898036
0.33292
0.354974
0.582723
0.682156
0.775757
0.682146
0.582705
0.332886
0.326617
0.789383
0.326618
0.332923
0.789351
0.332883
0.582723
0.354974
0.682156
0.682146
0.354967
0.775757
0.775755
0.681769
0.582241
0.354967
0.582705
0.332212
0.778666
0.7894
0.295748
0.28614
0.789367
0.292392
0.633965
0.345579
0.582705
0.354968
0.83332
0.946465
0.950274
0.82601
0.828347
0.944029
0.833088
0.946433
0.947525
0.93461
0.941413
0.938589
0.934601
0.934558
0.933987
0.933874
0.9346
0.940743
0.941412
0.946187
0.946538
0.833321
0.946466
0.833088
0.946433
0.950268
0.826004
0.828339
0.944024
0.950262
0.82833
0.944019
0.833088
0.946431
0.947524
0.946061
0.946468
0.948334
0.824401
0.934662
0.9341
0.80602
0.933998
0.806028
0.93244
0.933345
0.93472
0.94657
0.948345
0.824418
0.946065
0.822845
0.833107
0.946442
0.947534
0.950262
0.82833
0.944019
0.850116
0.728954
0.829374
0.860257
0.829955
0.86757
0.829952
0.829264
0.860166
0.827882
0.855136
0.849779
0.728521
0.875018
0.824119
0.814359
0.843581
0.829101
0.734898
0.791343
0.831723
0.840351
0.84043
0.740631
0.824081
0.81435
0.843578
0.797334
0.722207
0.843548
0.850119
0.728955
0.874556
0.849776
0.728483
0.89846
0.747952
0.82938
0.829959
0.86757
0.865964
0.76717
0.862835
0.829259
0.860162
0.829945
0.829948
0.829258
0.860165
0.829949
0.867571
0.767168
0.862831
0.829258
0.860165
0.898451
0.855128
0.747949
0.849777
0.728521
0.849777
0.728523
0.829101
0.791343
0.822513
0.849129
0.81955
0.836477
0.791746
0.727918
0.831723
0.84043
0.740631
0.818395
0.742345
0.821479
0.742359
0.821526
0.842178
0.794976
0.824081
0.797334
0.83272
0.722207
0.843573
0.819558
0.791779
0.727923
0.822516
0.849131
0.733636
0.795038
0.85004
0.728831
0.874471
0.899686
0.751021
0.768122
0.863421
0.829385
0.860261
0.829965
0.767167
0.862829
0.829942
0.867569
0.829253
0.89845
0.82788
0.855127
0.747949
0.849777
0.728523
0.875009
1
0.874739
1
0.999996
1
0.999996
0.999996
0.999996
1
1
0.874739
0.869084
0.869085
1
0.999994
1
1
1
0.999996
0.999996
0.999996
1
0.999995
1
0.999996
0.874741
0.869083
1
0.624836
0.252342
0.529856
0.139138
0.205974
0.67962
0.370041
0.999167
0.966067
0.892345
0.999996
0.999997
0.999997
0.999998
0.999998
0.999167
0.966067
0.892308
0.892345
0.235703
0.651786
0.892345
0.999998
0.999998
0.999996
0.999167
0.966067
0.892345
1
1
1
1
1
1
1
1
1
1
1
1
0.949889
0.974106
0.985468
0.996352
1
1
1
1
1
0.997229
0.996668
0.999282
0.999948
0.999386
0.999999
1
0.999994
0.999991
0.997229
0.996668
0.999282
0.999948
0.932971
0.630952
0.863413
0.988988
0.942327
0.999173
0.999172
0.470239
0.793522
0.932567
0.629584
0.863013
0.988972
0.942245
0.949891
0.974107
0.985468
0.996353
0.129185
0.327994
0.999386
0.999509
0.999811
0.999984
0.999998
0.999996
0.999999
0.999979
0.999995
0.999986
1
1
1
1
1
0.999999
1
1
1
1
1
1
1
1
0.999999
0.999998
0.999986
0.999999
0.999999
0.999995
1
1
1
1
1
1
1
1
0.999999
1
1
0.999999
0.999998
0.999999
1
0.999994
1
1
0.999386
0.999998
0.999996
0.999999
0.999999
0.999999
0.999509
0.999811
0.998102
0.995814
0.997229
0.996668
0.999282
0.999948
0.129184
0.327993
0.932971
0.630952
0.863413
0.988988
0.942327
0.999173
0.470238
0.793522
0.932565
0.629582
0.863012
0.988972
0.942245
0.999172
0.999172
0.932567
0.629584
0.863013
0.988972
0.942245
0.999172
0.470239
0.793522
0.932567
0.629584
0.863013
0.988972
0.942245
0.949891
0.974107
0.985468
0.996353
0.949891
0.974107
0.985468
0.996353
0.129185
0.327994
0.999386
0.999509
0.999811
0.995817
1
1
1
1
1
0.999509
0.999811
0.999998
0.999996
0.999999
1
1
1
1
1
1
0.999999
1
1
1
1
0.999999
0.999998
0.999999
0.999999
0.999995
1
0.999999
1
1
1
1
1
1
1
1
1
1
1
1
1
1
0.999999
0.999998
0.999999
1
0.932973
0.630954
0.863414
0.988988
0.942328
0.999173
0.999172
0.470238
0.793522
0.932565
0.629582
0.863012
0.988972
0.942245
0.949891
0.974107
0.985468
0.996353
0.129184
0.327993
0.999509
0.999811
0.999998
0.999999
0.999999
0.999999
0.992133
0.999643
0.997824
0.972988
0.981794
0.993684
0.999995
0.999991
0.999999
0.999999
1
1
0.992133
0.999643
0.997824
0.972988
0.981794
0.999995
0.999991
0.999999
0.999999
1
1
0.999999
0.999998
1
0.999999
0.999998
0.999999
0.999999
1
0.999995
0.999991
0.999999
0.999999
1
1
0.992104
0.999642
0.997819
0.972797
0.993653
0.999999
0.999998
1
0.999999
1
0.999999
0.999998
0.999999
1
1
0.999998
0.999999
0.999999
1
0.999998
0.999999
1
0.999999
1
0.999995
0.999991
0.999999
0.999999
1
1
0.992103
0.999642
0.997819
0.972796
0.999995
0.999991
0.999999
0.999999
1
1
0.992104
0.999642
0.997819
0.972797
0.999995
0.999991
0.999999
0.999999
1
1
0.992104
0.999642
0.997819
0.972797
0.999999
0.999998
0.999999
1
0.999998
0.999998
0.999999
1
0.999999
0.992133
0.999643
0.997824
0.972989
0.981795
0.993684
0.999995
0.999991
0.999999
0.999999
1
1
0.999995
0.999991
0.999999
0.999999
1
1
0.992103
0.999642
0.997819
0.972796
0.981585
0.821434
0.894198
0.921146
0.164725
0.879002
0.176001
0.164736
0.836894
0.94631
0.948005
0.836894
0.94631
0.948006
0.931996
0.925722
0.938968
0.932003
0.925716
0.948012
0.915496
0.915549
0.988158
0.948012
1
1
1
1
1
1
0.163513
0.16473
0.164725
0.898987
0.894201
0.921162
0.921167
0.89421
0.821431
0.821434
0.16473
0.164725
0.16473
0.921168
0.180578
0.921151
0.808443
0.164732
0.987596
0.997639
0.987585
0.997635
0.983397
0.983476
0.983375
0.983341
0.983339
0.983472
0.985255
0.987597
0.987585
0.987584
0.997635
0.8365
0.952947
0.948817
0.987583
0.983494
0.983369
0.98281
0.983502
0.8365
0.952948
0.948817
0.987587
0.987583
0.988076
0.948133
0.925718
0.93196
0.988158
0.948014
0.939044
0.924268
0.939186
0.924265
0.948136
0.879501
0.754189
0.886385
0.988043
0.947996
0.925723
0.931956
0.925718
0.931953
0.925717
0.931954
0.988157
0.948011
0.895838
0.754884
0.891008
0.939044
0.939597
0.87958
0.754434
0.886536
0.895839
0.754884
0.891008
0.988067
0.948103
0.932005
0.925727
0.925713
0.931951
0.999999
0.998892
1
1
1
1
1
1
1
1
1
1
0.999999
0.998885
0.998892
0.998892
1
1
1
1
1
0.999998
0.998892
0.0522127
0.882749
0.999993
0.882749
0.882748
1
1
1
1
0.999323
0.840986
0.964752
0.958617
0.829687
0.955662
1
1
1
1
0.999993
0.840986
0.964752
0.958617
0.829686
0.955662
0.999998
0.999996
0.999999
0.999999
0.999998
0.999993
0.129424
0.33375
0.470671
0.793783
0.840986
0.964752
0.958617
0.829687
0.955662
0.999323
0.992693
1
1
1
1
0.999998
0.999999
0.999999
0.999999
1
1
1
1
0.999998
1
1
1
1
0.999998
0.999996
0.999999
0.999999
0.999998
1
0.992677
0.999993
0.129424
0.33375
0.840987
0.964752
0.958617
0.829687
0.955662
0.470671
0.793783
0.470239
0.793522
0.999323
0.327994
0.999323
0.999998
0.999999
0.999999
0.999999
0.992693
0.999998
1
1
1
1
1
0.999999
1
1
1
1
1
0.999998
1
1
1
1
0.999998
0.999996
0.999999
0.999999
0.999998
0.129424
0.333752
0.470672
0.793784
0.999323
0.999988
0.999993
1
1
1
0.999999
1
1
0.999988
1
1
1
0.999999
1
1
1
1
1
0.999999
1
1
0.999988
0.999994
0.999811
1
1
1
1
1
1
0.999999
1
1
0.999988
0.999994
0.999811
1
1
1
0.999999
1
1
0.999988
1
1
1
0.999999
1
1
0.999988
0.999994
0.999811
1
1
1
0.999988
1
1
1
0.999999
1
1
1
1
1
0.999999
1
1
0.999988
0.963676
1
1
0.963676
1
1
0.963676
1
1
1
1
1
0.964605
0.963675
1
1
0.241376
0.269971
0.241376
0.26997
0.372437
0.372441
0.372437
0.458262
0.372416
0.458292
0.372437
0.458267
0.940901
0.372416
0.458291
0.372416
0.458287
0.458263
0.940904
0.898984
0.372432
0.458299
0.458262
0.129185
1
0.999998
0.999998
1
1
1
1
1
1
1
1
1
1
1
1
1
1
0.960776
0.837203
0.952642
0.960773
0.837209
0.952644
0.241405
0.270011
0.445043
0.445034
0.241405
0.27001
0.445045
0.241376
0.269971
0.445033
0.445032
0.241404
0.27001
0.445044
0.241384
0.269972
0.445036
0.241408
0.270011
0.445043
0.960767
0.837167
0.95262
0.95157
0.951593
0.960776
0.837166
0.952619
0.951569
0.317385
0.622397
0.875225
0.581163
0.180326
0.420347
0.867397
0.841863
0.758325
0.77428
0.785269
0.741081
0.810852
0.83667
0.326564
0.420414
0.89671
0.923365
0.787369
0.927401
0.96903
0.973233
0.956231
0.875041
0.751668
0.923365
0.304025
0.867398
0.776911
0.841863
0.787369
0.950667
0.986935
0.980097
0.9776
0.984718
0.978811
0.890157
0.738364
0.317385
0.758324
0.927401
0.986934
0.938477
0.821824
0.803872
0.874239
0.976125
0.973879
0.827813
0.85159
0.13261
0.622397
0.774275
0.968987
0.979953
0.821748
1
1
1
1
1
1
1
1
0.853925
0.934327
0.988705
0.904732
0.81701
0.898987
0.869894
0.241721
0.875225
0.785055
0.97049
0.97023
0.798873
1
1
1
1
1
1
1
1
0.840828
0.92561
0.989494
0.913452
0.827574
0.940899
0.701582
0.581147
0.73561
0.904036
0.861867
0.78023
0.834893
0.839556
0.828726
0.954201
0.985162
0.879633
0.790527
0.821431
0.291293
0.180301
0.779376
0.887144
0.561667
0.248628
0.376426
0.782563
0.912196
0.953807
0.986205
0.946437
0.752635
0.835058
0.184175
0.676274
0.959792
0.984147
0.946427
0.793707
0.892455
0.894203
0.586213
0.32264
0.185229
0.7367
0.898305
0.87921
0.752633
0.892454
0.894195
0.794942
0.231906
0.245591
0.643194
0.760398
0.772362
0.761676
0.69681
0.79134
0.899058
0.825708
0.962026
0.790489
0.821433
0.847669
0.58621
0.231847
0.13275
0.241789
0.701591
0.291295
0.895941
0.83232
0.89594
0.823327
0.832357
0.720579
0.705565
0.741059
0.702142
0.819034
0.834518
0.834505
0.996803
0.819011
0.755427
0.720577
0.705587
0.741052
0.702122
0.706479
0.684786
0.751652
0.68479
0.75311
0.948321
0.951059
0.956523
0.949963
0.94252
0.90635
0.895879
0.890246
0.890217
0.938106
0.942513
0.94835
0.951096
0.95651
0.94992
0.929314
0.912651
0.912672
0.936018
0.934886
0.996256
0.996184
0.996359
0.99646
0.995621
0.990231
0.988418
0.99022
0.994588
0.9954
0.996262
0.996192
0.996356
0.996452
0.995617
0.994729
0.992429
0.989778
0.989786
0.99244
0.99439
0.994733
0.986626
0.979875
0.974211
0.986151
0.984311
0.97091
0.9709
0.971081
0.971227
0.974112
0.986639
0.979897
0.974198
0.986134
0.9843
0.974108
0.980412
0.979851
0.873446
0.828673
0.79477
0.868382
0.7933
0.80146
0.797102
0.797101
0.801043
0.873472
0.828728
0.794735
0.868347
0.852179
0.84077
0.767891
0.805235
0.801044
0.837192
0.840777
0.824297
0.784557
0.924277
0.976545
0.964952
0.824295
0.976649
0.784545
0.741912
0.964989
0.741908
1
1
0.350881
0.538416
0.169758
0.296803
0.943041
0.966539
0.763717
0.150462
0.591503
0.132609
0.291293
0.241713
0.701582
0.734652
0.701575
0.241721
0.734647
0.2913
0.13261
0.590371
0.576631
0.231819
0.304048
0.586237
0.180328
0.77691
0.936847
0.581153
0.85159
0.705039
0.790527
0.821431
0.847667
0.875226
0.81701
0.898981
0.869886
0.827574
0.940899
0.96202
0.622411
0.827574
0.940901
0.81701
0.869894
0.317385
0.790527
0.85159
0.936845
0.776891
0.586207
0.304069
0.23186
0.231881
0.326499
0.326583
0.794928
0.836686
0.892454
0.943781
0.92115
0.970725
0.810852
0.891412
0.738364
0.752635
0.741081
0.827813
0.879633
0.785269
0.904732
0.913452
0.77428
0.913452
0.904732
0.758325
0.879633
0.827813
0.867394
0.943775
0.752635
0.738364
0.420389
0.892455
0.97073
0.794928
0.326491
0.231807
0.304099
0.58624
0.923375
0.836688
0.892456
0.751668
0.751668
0.793707
0.875041
0.890157
0.946437
0.956231
0.973879
0.985162
0.973233
0.988705
0.989494
0.96903
0.989494
0.988705
0.927401
0.985162
0.973879
0.787369
0.946437
0.890157
0.89671
0.923374
0.793707
0.751668
0.42033
0.892453
0.894189
0.943774
0.586204
0.591503
0.180328
0.936847
0.738364
0.810852
0.891412
0.752635
0.890157
0.875041
0.946437
0.978811
0.978811
0.986208
0.984718
0.976125
0.954201
0.9776
0.934327
0.92561
0.980097
0.92561
0.934327
0.986935
0.954201
0.976125
0.950667
0.986208
0.978811
0.787369
0.946437
0.875041
0.867394
0.776891
0.841852
0.836667
0.752635
0.810852
0.936845
0.180326
0.132609
0.291293
0.85159
0.705039
0.581153
0.790526
0.847667
0.827813
0.741079
0.879631
0.973879
0.956227
0.985154
0.976125
0.984706
0.954191
0.87424
0.874236
0.828751
0.803872
0.853924
0.840828
0.821824
0.840828
0.853925
0.938477
0.828751
0.874239
0.986935
0.954201
0.984718
0.927401
0.985162
0.956231
0.758325
0.879633
0.741081
0.317385
0.790527
0.847672
0.581163
0.2913
0.241713
0.701582
0.734652
0.817008
0.898981
0.869887
0.875227
0.827568
0.9409
0.904719
0.785241
0.913327
0.988605
0.97283
0.988642
0.934193
0.976403
0.924447
0.853903
0.803124
0.840564
1
1
1
1
1
1
1
1
1
1
1
1
1
1
1
1
1
1
1
1
1
1
1
1
0.821824
0.840828
0.803872
0.980097
0.92561
0.9776
0.96903
0.989494
0.973233
0.77428
0.913452
0.785269
0.622411
0.827574
0.96202
0.875225
0.701575
0.734647
0.701576
0.241719
0.734646
0.82754
0.9409
0.96202
0.622403
0.8168
0.898984
0.912509
0.772972
0.89953
0.984104
0.955202
0.962977
0.918334
0.945734
0.900094
0.8389
0.797022
0.843691
1
1
1
1
1
1
1
1
1
1
1
1
1
1
1
1
1
1
1
1
1
1
1
1
0.803873
0.853925
0.821825
0.9776
0.934328
0.980097
0.973233
0.988705
0.96903
0.785269
0.904732
0.77428
0.875226
0.81701
0.898981
0.622397
0.241713
0.734652
0.291295
0.132604
0.789647
0.821269
0.847641
0.317358
0.850852
0.775584
0.858826
0.741925
0.767762
0.891456
0.779476
0.711222
0.831018
0.647542
0.634604
0.773059
0.669961
0.719742
0.835109
0.755783
0.782574
0.853717
0.79871
0.82089
0.874238
0.874113
0.938465
0.984718
0.976124
0.986935
0.956231
0.973879
0.927401
0.741081
0.827813
0.758325
0.581153
0.851589
0.936845
0.808723
0.317384
0.132609
0.590378
0.936395
0.776169
0.630119
0.842911
0.931611
0.553652
0.37405
0.301073
0.0813737
0.246189
0.608971
0.0889414
0.392447
0.874073
0.723508
0.888819
0.931675
0.953613
0.975099
0.976082
0.983925
0.986841
0.978811
0.978803
0.950666
0.875041
0.890157
0.787369
0.810852
0.738364
0.867394
0.841852
0.836673
0.180326
0.776892
0.585385
0.301828
0.714577
0.86693
0.416423
0.337516
0.542343
0.138908
0.752318
0.760287
0.266056
0.369483
0.88069
0.703391
0.880002
0.982425
0.948026
0.963813
0.973757
0.955416
0.927309
0.890157
0.875034
0.787369
0.751668
0.751668
0.89671
0.92337
0.970726
0.923379
0.42043
0.304114
0.229682
0.669778
0.266115
0.310702
0.51158
0.372562
0.553773
0.855327
0.692209
0.758138
0.901776
0.778615
0.773082
0.827772
0.740927
0.75831
0.738365
0.810852
0.936845
0.891408
0.867394
0.943775
0.836671
0.420367
0.326608
0.326529
0.198345
0.494406
0.784388
0.179931
0.728494
0.31721
0.581226
0.819609
0.94093
0.962033
0.622585
0.875244
0.816695
0.875236
0.622401
0.851587
0.775757
0.581156
0.317385
0.776892
0.180327
0.304066
0.29143
0.701591
0.734649
0.241715
0.734652
0.132609
0.985256
0.9892
0.77009
0.895939
0.771929
0.951569
0.802582
0.960764
0.969361
0.802583
0.771931
0.951592
0.770214
0.83232
0.8814
0.984926
0.99685
0.881434
0.820933
0.996895
0.986777
0.984924
0.9892
0.997639
0.997635
0.832044
0.770087
0.89594
0.77193
0.951575
0.802582
0.895941
0.951592
0.960775
0.802581
0.969364
0.77193
0.951586
0.895939
0.960765
0.969361
0.770217
0.832323
0.8814
0.987609
0.997634
0.881439
0.772656
0.997635
0.895942
0.895939
0.960764
0.969361
0.997634
0.813131
0.83191
0.797765
0.701613
0.86353
0.86141
0.741045
0.864483
0.878726
0.705656
0.878756
0.864655
0.722743
0.862185
0.866717
0.75543
0.846144
0.836974
0.755276
0.782868
0.766094
0.755247
0.766045
0.830314
0.782844
0.694694
0.831926
0.797767
0.846139
0.701632
0.863558
0.861459
0.741051
0.864529
0.87874
0.705633
0.878741
0.864609
0.722744
0.862135
0.866688
0.755423
0.846124
0.836962
0.840926
0.996809
0.767859
0.805326
0.694078
0.840025
0.968132
0.933325
0.979379
0.97313
0.949458
0.984976
0.985639
0.9565
0.986145
0.987914
0.951174
0.987924
0.98619
0.95044
0.985834
0.985838
0.938122
0.981576
0.963167
0.960766
0.972387
0.964948
0.895828
0.960747
0.899397
0.906323
0.968114
0.963133
0.933342
0.979388
0.973129
0.983147
0.949499
0.984991
0.985661
0.956512
0.986163
0.98792
0.951137
0.987917
0.986171
0.95041
0.985813
0.985822
0.938112
0.983169
0.981571
0.964889
0.97221
0.935232
0.979511
0.994323
0.994536
0.992366
0.996405
0.996615