/*--------------------------------*- C++ -*----------------------------------*\
  =========                 |
  \\      /  F ield         | OpenFOAM: The Open Source CFD Toolbox
   \\    /   O peration     | Website:  https://openfoam.org
    \\  /    A nd           | Version:  13
     \\/     M anipulation  |
\*---------------------------------------------------------------------------*/
FoamFile
{
    format      ascii;
    class       volScalarField;
    location    "0";
    object      thickness;
}
// * * * * * * * * * * * * * * * * * * * * * * * * * * * * * * * * * * * * * //

dimensions      [];

internalField   uniform 0;

boundaryField
{
    inlet
    {
        type            fixedValue;
        value           uniform 0;
    }
    outlet
    {
        type            fixedValue;
        value           uniform 0;
    }
    front
    {
        type            fixedValue;
        value           nonuniform List<scalar> 0();
    }
    back
    {
        type            fixedValue;
        value           nonuniform List<scalar> 0();
    }
    top
    {
        type            fixedValue;
        value           uniform 0;
    }
    bottom
    {
        type            fixedValue;
        value           nonuniform List<scalar> 0();
    }
    walls
    {
        type            fixedValue;
        value           nonuniform List<scalar> 
5247
(
0
0
0
0
0
0
0
0
0
0
0
0
0
0
0
0
0
0
0
0
0
0
0
0
0
0
0
0
0
0
0
0
0
0
0
0
0
0
0
0
0
0
0
0
0
0
0
0
0
0
0
0
0
0
0
0
0
0
0
0
0
0
0
0
0
0
0
0
0
0
0
0
0
0
0
0
0
0
0
0
0
0
0
0
0
0
0
0
0
0
0
0
0
0
0
0
0
0
0
0
0
0
0
0
0
0
0
0
0
0
0
0
0
0
0
0
0
0
0
0
0
0
0
0
0
0
0
0
0
0
0
0
0
0
0
0
0
0
0
0
0
0
0
0
0
0
0
0
0
0
0
0
0
0
0
0
0
0
0
0
0
0
0
0
0
0
0
0
0
0
0
0
0
0
0
0
0
0
0
0
0
0
0
0
0
0
0
0
0
0
0
0
0
0
0
0
0
0
0
0
0
0
0
0
0
0
0
0
0
0
0
0
0
0
0
0
0
0
0
0
0
0
0
0
0
0
0
0
0
0
0
0
0
0
0
0
0
0
0
0
0
0
0
0
0
0
0
0
0
0
0
0
0
0
0
0
0
0
0
0
0
0
0
0
0
0
0
0
0
0
0
0
0
0
0
0
0
0
0
0
0
0
0
0
0
0
0
0
0
0
0
0
0
0
0
0
0
0
0
0
0
0
0
0
0
0
0
0
0
0
0
0
0
0
0
0
0
0
0
0
0
0
0
0
0
0
0
0
0
0
0
0
0
0
0
0
0
0
0
0
0
0
0
0
0
0
0
0
0
0
0
0
0
0
0
0
0
0
0
0
0
0
0
0
0
0
0
0
0
0
0
0
0
0
0
0
0
0
0
0
0
0
0
0
0
0
0
0
0
0
0
0
0
0
0
0
0
0
0
0
0
0
0
0
0
0
0
0
0
0
0
0
0
0
0
0
0
0
0
0
0
0
0
0
0
0
0
0
0
0
0
0
0
0
0
0
0
0
0
0
0
0
0
0
0
0
0
0
0
0
0
0
0
0
0
0
0
0
0
0
0
0
0
0
0
0
0
0
0
0
0
0
0
0
0
0
0
0
0
0
0
0
0
0
0
0
0
0
0
0
0
0
0
0
0
0
0
0
0
0
0
0
0
0
0
0
0
0
0
0
0
0
0
0
0
0
0
0
0
0
0
0
0
0
0
0
0
0
0
0
0
0
0
0
0
0
0
0
0
0
0
0
0
0
0
0
0
0
0
0
0
0
0
0
0
0
0
0
0
0
0
0
0
0
0
0
0
0
0
0
0
0
0
0
3.53063e-05
0.00011059
0.000184102
0.000182118
0.000184102
0.000183464
0.000182119
0.000178536
0.000178553
0.000183464
0.00026972
0.000307304
0.000248034
0.000272406
0.000269721
0.000319713
0.000312155
0.000327813
0.000310591
0.000272284
0.000307303
0.000248034
0.000272373
0.000300218
0.000309949
0.000327634
0.000310588
0.000272285
0.000405581
0.000413966
0.000397874
0.000405982
0.000405581
0.000420437
0.000420762
0.000423122
0.000420204
0.000417028
0.000413964
0.000397873
0.000405949
0.000414483
0.000418522
0.000422974
0.000420201
0.000417029
0.000438895
0.000439964
0.000437596
0.000438499
0.000438894
0.000440806
0.000440679
0.000440749
0.000440791
0.000440425
0.000439963
0.000437596
0.000438497
0.00044021
0.000440437
0.000440736
0.000440791
0.000440425
0.000430874
0.00043543
0.000431641
0.000429706
0.000430873
0.000436453
0.000433469
0.000430947
0.000436226
0.000435291
0.000435429
0.000431641
0.000429706
0.000436435
0.000433462
0.000430947
0.000436226
0.000435291
0.000354347
0.000381302
0.000361855
0.000354858
0.000354347
0.00038639
0.000366596
0.00035156
0.000384113
0.000376357
0.0003813
0.000361855
0.000354858
0.000386391
0.000366598
0.000351559
0.000384112
0.000376358
0.00021344
0.000235575
0.00022052
0.000210683
0.00021344
0.00023438
0.000225248
0.000242935
0.000218296
0.000235575
0.00022052
0.000216249
0.000210683
0.000216254
0.000234407
0.000225282
0.000242935
0.000218296
0.000120881
0.000120881
0.000114974
0.000114974
9.81446e-05
5.43151e-05
9.28946e-05
8.22769e-05
5.31539e-06
9.16464e-05
3.35506e-05
0.000103814
0.000129948
0.000129934
0.000124131
0.000127389
0.000124094
0.000124114
0.000124099
0.000127388
0.00012754
0.000129949
0.000130579
0.000129934
0.000129934
0.000130578
0.000129933
0.000127543
0.00012753
0.000124139
0.000124586
0.000124263
0.000127562
0.000130585
0.000130578
0.000127531
0.000124602
0.000129939
0.000129933
0.000183478
0.000220717
0.000236615
0.000236724
0.000183465
0.000220716
0.000178374
0.000220475
0.000181575
0.000220494
0.000218258
0.000239291
0.000178343
0.00022054
0.000178356
0.000220473
0.000218618
0.000218615
0.000218617
0.000218616
0.000178346
0.00022054
0.000182118
0.00022745
0.000239292
0.000183478
0.000220717
0.00022744
0.000183465
0.000220716
0.000236724
0.000238499
0.000239031
0.000248522
0.000248522
0.00023903
0.000236727
0.0002385
0.000236729
0.000183464
0.000220716
0.00018409
0.000227719
0.000220716
0.000239291
0.000241416
0.000233893
0.000178374
0.000220541
0.000218621
0.000218621
0.000223641
0.000223643
0.000178424
0.000220541
0.000182135
0.000227448
0.000227414
0.000184091
0.000227719
0.000182104
0.000233894
0.000241415
0.000183469
0.000220716
0.000230102
0.000231931
0.000238934
0.000248394
0.000248484
0.000239024
0.0002385
0.000236729
0.000220716
0.000272206
0.000257112
0.00027241
0.000371995
0.000356319
0.000248029
0.000339691
0.000339676
0.000356302
0.000371991
0.000269772
0.000370241
0.000272205
0.0003106
0.000383401
0.000381396
0.000327816
0.000382489
0.000388728
0.000312142
0.00038872
0.000382463
0.00031973
0.00038137
0.000383406
0.000272206
0.000293385
0.000371145
0.000374481
0.00027241
0.000356318
0.000375948
0.000368201
0.000248027
0.000339691
0.000265998
0.000352197
0.000352206
0.000368733
0.000293386
0.000371148
0.000312518
0.000368212
0.000375953
0.000267351
0.000368004
0.00029612
0.000371182
0.000371533
0.000327062
0.000378845
0.000387658
0.000312113
0.000388484
0.000382425
0.00031973
0.000381366
0.000383406
0.000374483
0.000434921
0.000406007
0.000433452
0.00042683
0.000413953
0.000430079
0.000433384
0.000434173
0.000420226
0.000436094
0.000436094
0.000423128
0.000436252
0.000437019
0.000420741
0.000437015
0.000436242
0.000420432
0.000436083
0.000436091
0.000416925
0.000415451
0.000434368
0.000434949
0.000406006
0.000433452
0.000430146
0.000415915
0.000434139
0.000431872
0.000397855
0.000426855
0.000428935
0.000428941
0.000433826
0.000415454
0.00043437
0.000411105
0.000415921
0.000431881
0.000434142
0.000433641
0.000415252
0.000433914
0.000434247
0.000422444
0.000435371
0.000436751
0.000420719
0.000436961
0.000436235
0.000420432
0.000436082
0.000436091
0.00043495
0.000440527
0.000438835
0.000440421
0.000438422
0.000438731
0.000439213
0.000440793
0.000440884
0.000440814
0.00044075
0.000440083
0.000439433
0.000440675
0.000439431
0.00044008
0.000440821
0.000440828
0.000440978
0.000440525
0.000440218
0.000440199
0.000440497
0.000440421
0.000439876
0.000439876
0.00043862
0.000437487
0.000438759
0.00043828
0.00043736
0.000437364
0.000438422
0.000439198
0.000440219
0.0004402
0.000438626
0.000439879
0.000439983
0.000440285
0.000440762
0.000440711
0.000440681
0.000440036
0.000439421
0.000440674
0.000439429
0.00044008
0.000440821
0.000440828
0.000440978
0.000440498
0.000418355
0.000419038
0.000406565
0.000433705
0.000414123
0.00043616
0.000421579
0.000420603
0.000430952
0.000412952
0.000405886
0.000433468
0.000405878
0.000412963
0.00043681
0.000420787
0.000422469
0.000418347
0.000434281
0.000415205
0.000417989
0.000419037
0.000433444
0.000430096
0.000413982
0.000405971
0.000405686
0.000426805
0.000426813
0.000397854
0.000397868
0.000404983
0.000404092
0.000406565
0.000434283
0.000415208
0.000430107
0.000405989
0.000413987
0.000436145
0.000421578
0.000420603
0.000430951
0.000412952
0.000405886
0.000433468
0.000405878
0.000412962
0.00043681
0.000420787
0.000422469
0.00041799
0.00027124
0.00037698
0.000258539
0.000379174
0.000317998
0.000317136
0.000354545
0.000275072
0.000267769
0.00028015
0.000258552
0.0002705
0.00037034
0.000383816
0.000325146
0.000320725
0.000351569
0.000277206
0.000258565
0.000366623
0.000258561
0.000277224
0.000387741
0.000320947
0.000326082
0.000273821
0.000370606
0.000292384
0.000273579
0.000356188
0.000306304
0.000271767
0.00033967
0.000247199
0.000247204
0.000258552
0.0002705
0.000370609
0.000292384
0.000271771
0.000306302
0.000383817
0.000325148
0.000320731
0.00035157
0.00027721
0.000258566
0.000366622
0.000258561
0.000277224
0.000387741
0.000320946
0.000326082
0.000273579
0.000218305
0.00014826
0.000225278
0.000225256
0.000234495
0.000218296
0.000148171
0.000128885
0.000216859
0.000136367
0.000128992
0.000128879
0.000216429
0.000216453
0.000128879
0.000216858
0.000136367
0.000216858
0.000136362
0.000218305
0.000148261
0.00016494
0.000218297
0.000148179
0.000242892
0.000225282
0.000225253
0.000225252
0.000234491
0.000218296
0.000148171
0.000223046
0.00016537
0.000148171
0.000229206
0.0002154
0.000136757
0.000128992
0.000216453
0.000209748
0.000209755
0.000129253
0.000128879
0.000216858
0.000136366
0.000164965
0.000223046
0.00016537
0.000215403
0.000136757
0.000129258
0.000218303
0.00014824
0.000242963
0.000225252
0.000234491
0.000148171
0.000114997
0.000114974
0.000114997
0.000114977
0.000114974
0.000120784
0.000120879
0.000120784
0.000114992
7.10391e-05
1.50712e-05
1.99426e-05
0.000100915
4.06446e-05
8.17442e-05
2.91021e-05
9.49052e-05
9.80014e-05
4.75382e-05
0.000131727
4.86668e-05
4.67514e-05
0.000128428
4.65899e-05
0.000128873
4.83812e-05
0.000133389
4.96092e-05
0.000131551
0.000133477
4.97097e-05
0.000133484
4.97126e-05
4.83829e-05
0.000133395
4.96115e-05
0.000131555
4.67525e-05
0.000128426
4.65892e-05
0.000128875
4.75317e-05
0.000131654
4.86305e-05
4.65364e-05
4.60999e-05
4.71116e-05
0.00012617
4.56644e-05
0.000128896
4.79471e-05
0.000132945
4.93514e-05
4.78385e-05
0.000132755
4.92614e-05
4.6594e-05
4.61388e-05
0.000127985
4.70392e-05
0.000126044
4.56113e-05
0.000128701
4.54666e-05
4.5232e-05
4.52259e-05
0.000124497
4.52257e-05
4.54656e-05
4.71101e-05
0.00012616
4.56604e-05
0.000128893
4.65358e-05
4.60997e-05
4.70398e-05
0.000126048
4.56129e-05
0.000128703
4.65942e-05
4.61388e-05
0.000127986
4.75383e-05
0.000131727
4.79471e-05
0.000132945
4.93515e-05
4.78385e-05
0.000132755
4.92614e-05
4.75317e-05
0.000131654
4.86305e-05
4.67518e-05
0.000128428
4.65901e-05
0.000128874
4.83817e-05
0.000133391
4.96098e-05
0.000131552
4.67524e-05
0.000128875
4.83829e-05
0.000133395
4.96115e-05
0.000131555
0.000133478
4.97103e-05
0.000133484
4.97125e-05
0.000133482
4.97119e-05
0.000133477
4.97097e-05
4.83823e-05
0.000133394
4.96109e-05
0.000131554
4.6752e-05
0.000128425
4.65889e-05
0.000128874
4.83813e-05
0.00013339
4.96093e-05
0.000131551
4.67513e-05
0.000128424
4.65886e-05
0.000128872
4.75317e-05
0.000131654
4.86307e-05
4.78394e-05
0.000132756
4.92619e-05
4.78388e-05
0.000132755
4.92622e-05
4.75316e-05
0.000131654
4.86309e-05
4.65977e-05
4.61405e-05
4.70455e-05
0.000126067
4.56234e-05
0.000128713
4.65839e-05
4.61358e-05
0.00012796
4.70439e-05
0.000126317
4.57471e-05
0.000128702
0.000124578
4.52734e-05
4.5546e-05
4.53362e-05
0.000124748
4.53497e-05
0.000124762
4.53553e-05
4.54863e-05
4.7109e-05
0.000126181
4.56993e-05
0.000128811
4.66343e-05
4.615e-05
4.78395e-05
0.000132755
4.92589e-05
4.78389e-05
0.000132756
4.92622e-05
4.70455e-05
0.000126327
4.57509e-05
0.000128705
4.65846e-05
4.6136e-05
4.75341e-05
0.000131656
4.863e-05
4.67552e-05
0.000128432
0.00012888
4.83851e-05
0.000133398
4.96132e-05
0.000131559
0.000133486
4.97138e-05
0.000133477
4.97096e-05
4.83812e-05
0.000133389
4.96092e-05
0.000131551
4.67513e-05
0.000128424
4.65885e-05
0.000128872
4.75316e-05
0.000131654
0.000107436
9.89925e-05
7.10296e-05
8.06007e-05
0.00011059
0.00011059
0.00011059
0.00011059
0.00011059
0.00011059
0.00011059
0.000107436
9.89925e-05
8.06004e-05
7.10295e-05
7.10296e-05
8.06007e-05
7.10296e-05
8.06007e-05
0.00011059
0.00011059
0.00011059
0.00011059
0.00011059
0.00011059
0.00011059
0.000107436
9.89927e-05
7.10296e-05
8.06006e-05
1.88914e-05
1.80598e-05
0.000125773
0.00011059
0.000112815
0.000113949
0.00011059
0.000113153
0.000125773
0.00011059
9.9418e-05
0.000120569
0.000115246
9.57275e-05
0.000123643
0.000125883
0.000120943
0.000113949
0.00011059
0.000113153
0.000109106
0.000120969
0.000115307
9.57275e-05
0.000123643
0.000125883
0.000120943
1.88893e-05
1.88916e-05
1.88894e-05
1.6335e-05
1.88934e-05
1.88913e-05
0.000120996
0.00011059
0.000109106
0.000120969
0.000103454
0.000123788
0.000130461
7.34372e-05
0.000115307
0.000110216
9.12857e-05
0.000110569
0.00011059
0.000115246
0.000110569
0.00011059
0.000110215
9.10766e-05
9.57275e-05
0.000123643
0.000125884
9.94182e-05
0.000120569
7.22909e-05
0.000120943
0.00011059
0.000112787
0.000113153
0.00011059
0.00011059
0.000125683
0.00011059
0.00011059
0.000113185
0.00011059
0.00011059
0.000113949
0.00011059
0.000113949
0.00011059
0.000113949
0.00011059
0.000113153
0.00011059
0.00011059
0.000112787
0.00011059
0.00011059
0.000120996
0.00011059
0.000125742
0.00011059
0.00011059
0.000120958
0.00011059
0.000109106
0.000120969
0.000103454
0.000123788
0.000130461
7.34372e-05
9.57275e-05
0.000123643
0.000125884
7.22908e-05
0.000115307
0.000110216
9.12857e-05
0.000110569
0.00011059
0.000110215
9.10764e-05
0.000110569
0.00011059
0.000115246
0.000110569
0.00011059
0.000110215
9.10766e-05
0.000115246
0.000110569
0.00011059
0.000110215
9.10766e-05
9.57275e-05
0.000123643
0.000125883
9.94182e-05
0.000120569
7.22909e-05
9.94182e-05
0.000120569
7.22909e-05
0.000120943
0.00011059
0.000125683
0.00011059
0.000125684
0.00011059
0.00011059
0.00011059
0.00011059
0.000113185
0.00011059
0.00011059
0.00011317
0.00011059
0.00011059
0.000113949
0.00011059
0.000113969
0.00011059
0.000113968
0.00011059
0.00011059
0.00011059
0.000125767
0.00011059
0.000125684
0.00011059
0.00011059
0.00011059
0.00011317
0.000112802
0.00011059
0.00011059
0.000120986
0.00011059
0.000103454
0.000123788
0.000130461
7.34375e-05
0.000110216
9.1286e-05
0.000110569
0.00011059
0.000115246
0.000110569
0.00011059
0.000110215
9.10763e-05
9.94182e-05
0.000120569
7.22907e-05
0.00011059
0.000109951
0.00010672
0.000109779
0.000110518
7.99076e-05
9.60354e-05
5.55121e-05
6.54256e-05
2.23627e-05
6.45904e-05
2.70946e-05
2.26995e-05
6.09772e-05
1.99963e-05
9.61637e-05
4.78368e-05
8.28471e-05
0.000102814
2.60665e-05
7.20812e-05
0.00011059
0.00011059
0.00011059
0.00011059
0.00011059
0.00011059
0.00011059
0.00011059
0.00011059
0.00011059
0.00011059
0.00011059
0.00011059
0.00011059
0.00011059
0.00011059
0.00011059
0.00011059
0.00011059
0.00011059
0.00011059
0.00011059
0.00011059
0.00011059
0.00011059
0.00011059
0.00011059
0.00011059
0.00011059
0.00011059
0.00011059
0.00011059
0.00011059
0.00011059
0.00011059
0.00011059
0.00011059
0.00011059
0.00011059
0.00011059
0.00011059
0.00011059
0.00011059
0.00011059
0.00011059
0.00011059
0.00011059
0.00011059
0.00011059
0.00011059
0.00011059
0.00011059
0.00011059
0.00011059
0.00011059
0.00011059
0.00011059
0.00011059
0.00011059
0.000109951
0.00010672
0.000109779
0.000110518
7.99076e-05
9.60354e-05
5.55121e-05
6.54256e-05
2.23627e-05
9.61634e-05
4.78362e-05
8.28459e-05
0.000102813
2.60651e-05
7.20774e-05
6.45905e-05
2.70945e-05
2.26996e-05
6.09773e-05
1.99963e-05
6.45904e-05
2.70946e-05
2.26996e-05
6.09772e-05
1.99963e-05
9.61637e-05
4.78368e-05
8.28471e-05
0.000102814
6.45904e-05
2.70946e-05
2.26995e-05
6.09772e-05
1.99963e-05
9.61637e-05
4.78368e-05
8.28471e-05
0.000102814
2.60665e-05
7.20812e-05
0.00011059
0.00011059
0.00011059
0.00011059
0.00011059
0.00011059
0.00011059
0.00011059
0.00011059
0.00011059
0.00011059
0.00011059
0.00011059
0.00011059
0.00011059
0.00011059
0.00011059
0.00011059
0.00011059
0.00011059
0.00011059
0.00011059
0.00011059
0.00011059
0.00011059
0.00011059
0.00011059
0.00011059
0.00011059
0.00011059
0.00011059
0.00011059
0.00011059
0.00011059
0.00011059
0.00011059
0.00011059
0.00011059
0.00011059
0.00011059
0.00011059
0.00011059
0.00011059
0.00011059
0.00011059
0.00011059
0.00011059
0.00011059
0.00011059
0.00011059
0.00011059
0.00011059
0.00011059
0.00011059
0.00011059
0.00011059
0.00011059
0.00011059
0.00011059
0.00011059
0.00011059
0.000109951
0.00010672
0.000109779
0.000110518
7.99079e-05
9.60354e-05
5.55122e-05
6.54259e-05
2.23628e-05
6.45904e-05
2.70946e-05
2.26995e-05
6.09771e-05
1.99962e-05
9.61637e-05
4.78368e-05
8.28471e-05
0.000102814
2.60665e-05
7.20812e-05
4.89248e-05
4.89248e-05
0.00011044
0.00011059
0.000103238
0.000110585
0.00011059
0.00011059
0.00011059
0.00011044
0.00011059
0.000103238
0.000110585
0.00011059
0.00011059
0.00011059
4.48236e-05
4.89227e-05
4.48075e-05
4.48164e-05
4.48102e-05
4.89227e-05
4.88964e-05
4.89227e-05
4.48325e-05
4.50456e-05
4.49172e-05
4.72443e-05
4.89227e-05
4.50522e-05
0.000110585
0.00011059
0.00011059
0.00011059
0.000110439
0.00011059
0.000103127
0.000110585
0.00011059
0.00011059
0.00011059
0.000110439
0.00011059
0.000103126
0.000110585
0.00011059
0.00011059
0.00011059
0.000110439
0.00011059
0.000103127
0.000110585
0.00011059
0.00011059
0.00011059
0.000110439
0.00011059
0.000103127
0.00011044
0.00011059
0.000103239
0.000110585
0.00011059
0.00011059
0.00011059
0.000110585
0.00011059
0.00011059
0.00011059
0.000110439
0.00011059
0.000103126
0.000108492
0.000109853
0.000106507
0.000110588
0.000110541
0.000110587
0.00011059
0.00011059
0.00011059
0.000110588
0.000110541
0.000110587
0.00011059
0.00011059
0.00011059
0.000108484
0.000109851
0.000106498
0.00011059
0.00011059
0.000110589
0.000110588
0.00011059
0.00011059
0.000110589
0.000110588
0.00011059
0.00011059
0.000110588
0.000110589
0.00011059
0.00011059
0.00011059
0.00011059
0.00011059
0.00011059
0.000110588
0.000110589
0.000108492
0.000109853
0.000106507
0.000110588
0.000110541
0.000110587
0.00011059
0.00011059
0.00011059
0.000108484
0.000109851
0.000106498
0.000110588
0.000110541
0.000110587
0.00011059
0.00011059
0.00011059
0.000110588
0.000110541
0.000110587
0.00011059
0.00011059
0.00011059
0.000108484
0.000109851
0.000106498
0.000110588
0.000110541
0.000110587
0.00011059
0.00011059
0.00011059
0.000108484
0.000109851
0.000106498
0.00011059
0.00011059
0.000110589
0.000110588
0.00011059
0.00011059
0.00011059
0.00011059
0.00011059
0.00011059
0.000110589
0.000110588
0.00011059
0.00011059
0.000110588
0.000110589
0.00011059
0.00011059
0.000110588
0.000110589
0.000108492
0.000109853
0.000106507
0.000110588
0.000110541
0.000110587
0.00011059
0.00011059
0.00011059
0.000110588
0.000110541
0.000110587
0.00011059
0.00011059
0.00011059
0.000108484
0.000109851
0.000106498
0.000171582
7.85118e-05
0.000174592
0.0001746
0.000128883
0.000171582
7.8489e-05
0.000150877
1.84074e-05
7.22467e-05
0.000119441
0.000150878
1.84073e-05
0.000209278
0.000209356
0.00018203
0.000206581
0.000178194
0.000206556
0.000209839
0.000180359
0.000182379
0.000207598
0.000210182
0.000182697
0.000183214
0.000208801
0.000184263
0.000209332
0.000209279
0.000209356
0.000178243
0.000206576
0.000209249
0.000209856
0.000180424
0.000182432
0.000207621
0.000209258
0.000210135
0.000182701
0.000183217
0.000208803
0.000184263
0.000209332
0.000209574
9.61123e-05
0.00011059
0.00011059
0.00011059
9.61123e-05
0.00011059
7.70586e-05
9.19225e-05
9.46702e-05
4.83135e-05
9.9314e-05
1.84088e-05
7.85133e-05
0.000128887
0.00015088
0.000171582
0.000150877
0.000128883
1.8407e-05
7.22414e-05
0.000174596
7.22415e-05
1.8409e-05
0.000174589
1.84068e-05
0.000128887
7.85133e-05
0.00015088
0.000150877
7.85118e-05
0.000171582
0.000171582
0.000150794
0.00012878
7.85118e-05
0.000128883
1.83697e-05
0.000172226
0.0001746
6.54136e-05
6.32886e-05
0.000174593
1.61678e-05
0.000140221
7.64353e-05
0.000128883
7.85119e-05
0.000184314
0.00020934
0.000210182
0.000182697
0.000183214
0.000208801
0.000184263
0.000209333
0.000209574
0.000206717
0.000208222
0.000207598
0.000206716
0.000206706
0.00020658
0.000206555
0.000206715
0.000208074
0.000208222
0.000209278
0.000209356
0.000184314
0.00020934
0.000184263
0.000209333
0.000210181
0.000182696
0.000183213
0.0002088
0.000210179
0.000183211
0.000208799
0.000184263
0.000209332
0.000209574
0.00020925
0.00020934
0.000209753
0.000182341
0.000206729
0.000206605
0.000178276
0.000206582
0.000178278
0.000206238
0.000206438
0.000206742
0.000209363
0.000209756
0.000182345
0.000209251
0.000181997
0.000184267
0.000209335
0.000209576
0.000210179
0.00018321
0.000208799
0.000188029
0.000161231
0.000183441
0.00013319
0.00018357
0.000134323
0.000183569
0.000183417
0.000133176
0.000137334
0.000189139
0.000187955
0.000161135
0.000193537
0.000182279
0.00018012
0.000186584
0.000183381
0.000142227
0.00017503
0.000183961
0.000185869
0.000185887
0.000143337
0.000182271
0.000180118
0.000186583
0.000176355
0.000139771
0.000186576
0.00018803
0.000161231
0.000193435
0.000187954
0.000161126
0.000198722
0.000165432
0.000183443
0.000183571
0.000134323
0.000134074
0.000148473
0.000190842
0.000183416
0.000133176
0.000183568
0.000183568
0.000183416
0.000133176
0.000183569
0.000134323
0.000148472
0.000190841
0.000183416
0.000133176
0.00019872
0.000189138
0.000165432
0.000187954
0.000161135
0.000187954
0.000161135
0.000183381
0.00017503
0.000181924
0.000187811
0.000181269
0.000129509
0.000175119
0.000140876
0.000183961
0.000185887
0.000143337
0.000181013
0.000143668
0.000181695
0.000143671
0.000181706
0.000186273
0.000175833
0.000182271
0.000176355
0.000128927
0.000139771
0.000186582
0.00018127
0.000175126
0.000140877
0.000181924
0.000187811
0.000141983
0.000175847
0.000188012
0.000161203
0.000193416
0.000198993
0.000166111
0.000148657
0.000190972
0.000183444
0.000133191
0.000183572
0.000148472
0.000190841
0.000183567
0.000134323
0.000183415
0.00019872
0.000137333
0.000189138
0.000165432
0.000187954
0.000161135
0.000193535
0.00011059
9.67376e-05
0.00011059
0.00011059
0.00011059
0.00011059
0.00011059
0.00011059
0.00011059
0.00011059
9.67376e-05
9.61122e-05
9.61123e-05
0.00011059
0.00011059
0.00011059
0.00011059
0.00011059
0.00011059
0.00011059
0.00011059
0.00011059
0.00011059
0.00011059
0.00011059
9.67378e-05
9.61122e-05
0.00011059
6.91008e-05
2.79066e-05
5.8597e-05
1.53873e-05
2.27787e-05
7.51593e-05
4.09229e-05
0.000110498
0.000106838
9.86847e-05
0.00011059
0.00011059
0.00011059
0.00011059
0.00011059
0.000110498
0.000106838
9.86806e-05
9.86847e-05
2.60665e-05
7.20812e-05
9.86847e-05
0.00011059
0.00011059
0.00011059
0.000110498
0.000106838
9.86847e-05
0.00011059
0.00011059
0.00011059
0.00011059
0.00011059
0.00011059
0.00011059
0.00011059
0.00011059
0.00011059
0.00011059
0.00011059
0.000105049
0.000107727
0.000108983
0.000110187
0.00011059
0.00011059
0.00011059
0.00011059
0.00011059
0.000110284
0.000110222
0.000110511
0.000110585
0.000110522
0.00011059
0.00011059
0.00011059
0.000110589
0.000110284
0.000110222
0.000110511
0.000110585
0.000103178
6.97771e-05
9.54851e-05
0.000109372
0.000104212
0.000110499
0.000110499
5.20038e-05
8.77558e-05
0.000103133
6.96258e-05
9.54409e-05
0.000109371
0.000104203
0.000105049
0.000107727
0.000108983
0.000110187
1.42866e-05
3.6273e-05
0.000110522
0.000110536
0.000110569
0.000110589
0.00011059
0.00011059
0.00011059
0.000110588
0.00011059
0.000110589
0.00011059
0.00011059
0.00011059
0.00011059
0.00011059
0.00011059
0.00011059
0.00011059
0.00011059
0.00011059
0.00011059
0.00011059
0.00011059
0.00011059
0.00011059
0.00011059
0.000110589
0.00011059
0.00011059
0.00011059
0.00011059
0.00011059
0.00011059
0.00011059
0.00011059
0.00011059
0.00011059
0.00011059
0.00011059
0.00011059
0.00011059
0.00011059
0.00011059
0.00011059
0.00011059
0.00011059
0.00011059
0.00011059
0.000110522
0.00011059
0.00011059
0.00011059
0.00011059
0.00011059
0.000110536
0.000110569
0.00011038
0.000110127
0.000110284
0.000110222
0.000110511
0.000110585
1.42865e-05
3.62729e-05
0.000103178
6.97771e-05
9.54851e-05
0.000109372
0.000104212
0.000110499
5.20037e-05
8.77558e-05
0.000103133
6.96256e-05
9.54408e-05
0.000109371
0.000104203
0.000110499
0.000110499
0.000103133
6.96258e-05
9.54409e-05
0.000109371
0.000104203
0.000110499
5.20038e-05
8.77558e-05
0.000103133
6.96258e-05
9.54409e-05
0.000109371
0.000104203
0.000105049
0.000107727
0.000108983
0.000110187
0.000105049
0.000107727
0.000108983
0.000110187
1.42866e-05
3.6273e-05
0.000110522
0.000110536
0.000110569
0.000110128
0.00011059
0.00011059
0.00011059
0.00011059
0.00011059
0.000110536
0.000110569
0.00011059
0.00011059
0.00011059
0.00011059
0.00011059
0.00011059
0.00011059
0.00011059
0.00011059
0.00011059
0.00011059
0.00011059
0.00011059
0.00011059
0.00011059
0.00011059
0.00011059
0.00011059
0.00011059
0.00011059
0.00011059
0.00011059
0.00011059
0.00011059
0.00011059
0.00011059
0.00011059
0.00011059
0.00011059
0.00011059
0.00011059
0.00011059
0.00011059
0.00011059
0.00011059
0.00011059
0.00011059
0.00011059
0.00011059
0.000103178
6.97774e-05
9.54852e-05
0.000109372
0.000104212
0.000110499
0.000110499
5.20037e-05
8.77558e-05
0.000103133
6.96256e-05
9.54408e-05
0.000109371
0.000104203
0.000105049
0.000107727
0.000108983
0.000110187
1.42865e-05
3.62728e-05
0.000110536
0.000110569
0.00011059
0.00011059
0.00011059
0.00011059
0.00010972
0.000110551
0.00011035
0.000107603
0.000108577
0.000109892
0.00011059
0.000110589
0.00011059
0.00011059
0.00011059
0.00011059
0.00010972
0.000110551
0.00011035
0.000107603
0.000108577
0.00011059
0.000110589
0.00011059
0.00011059
0.00011059
0.00011059
0.00011059
0.00011059
0.00011059
0.00011059
0.00011059
0.00011059
0.00011059
0.00011059
0.00011059
0.000110589
0.00011059
0.00011059
0.00011059
0.00011059
0.000109717
0.000110551
0.000110349
0.000107582
0.000109888
0.00011059
0.00011059
0.00011059
0.00011059
0.00011059
0.00011059
0.00011059
0.00011059
0.00011059
0.00011059
0.00011059
0.00011059
0.00011059
0.00011059
0.00011059
0.00011059
0.00011059
0.00011059
0.00011059
0.00011059
0.000110589
0.00011059
0.00011059
0.00011059
0.00011059
0.000109717
0.000110551
0.000110349
0.000107582
0.00011059
0.000110589
0.00011059
0.00011059
0.00011059
0.00011059
0.000109717
0.000110551
0.000110349
0.000107582
0.00011059
0.000110589
0.00011059
0.00011059
0.00011059
0.00011059
0.000109717
0.000110551
0.000110349
0.000107582
0.00011059
0.00011059
0.00011059
0.00011059
0.00011059
0.00011059
0.00011059
0.00011059
0.00011059
0.00010972
0.000110551
0.00011035
0.000107603
0.000108577
0.000109892
0.00011059
0.000110589
0.00011059
0.00011059
0.00011059
0.00011059
0.00011059
0.000110589
0.00011059
0.00011059
0.00011059
0.00011059
0.000109717
0.000110551
0.000110349
0.000107582
0.000108554
0.000181685
0.000197779
0.00020374
1.8217e-05
0.000194418
3.89281e-05
1.82182e-05
0.000185105
0.000209305
0.00020968
0.000185105
0.000209305
0.00020968
0.000206139
0.000204752
0.000207681
0.000206141
0.00020475
0.000209682
0.00020249
0.000202502
0.000218561
0.000209682
0.00011059
0.00011059
0.00011059
0.00011059
0.00011059
0.00011059
1.8083e-05
1.82176e-05
1.8217e-05
0.000198839
0.00019778
0.000203743
0.000203744
0.000197782
0.000181685
0.000181685
1.82176e-05
1.8217e-05
1.82176e-05
0.000203744
3.99404e-05
0.000203741
0.000178812
1.82178e-05
0.000218437
0.000220658
0.000218435
0.000220657
0.000217508
0.000217526
0.000217503
0.000217496
0.000217496
0.000217525
0.000217919
0.000218437
0.000218435
0.000218434
0.000220657
0.000185017
0.000210773
0.00020986
0.000218434
0.00021753
0.000217502
0.000217378
0.000217531
0.000185017
0.000210773
0.00020986
0.000218435
0.000218434
0.000218543
0.000209709
0.000204751
0.000206131
0.000218561
0.000209682
0.000207698
0.00020443
0.00020773
0.00020443
0.000209709
0.000194529
0.000166812
0.000196051
0.000218536
0.000209678
0.000204752
0.000206131
0.000204751
0.00020613
0.000204751
0.00020613
0.000218561
0.000209682
0.000198142
0.000166966
0.000197074
0.000207698
0.00020782
0.000194546
0.000166866
0.000196084
0.000198142
0.000166966
0.000197074
0.000218541
0.000209702
0.000206141
0.000204753
0.00020475
0.000206129
0.00011059
0.000110468
0.00011059
0.00011059
0.00011059
0.00011059
0.00011059
0.00011059
0.00011059
0.00011059
0.00011059
0.00011059
0.00011059
0.000110467
0.000110468
0.000110468
0.00011059
0.00011059
0.00011059
0.00011059
0.00011059
0.00011059
0.000110468
5.77422e-06
9.76235e-05
0.00011059
9.76235e-05
9.76234e-05
0.00011059
0.00011059
0.00011059
0.00011059
0.000110515
9.30049e-05
0.000106692
0.000106014
9.17553e-05
0.000105687
0.00011059
0.00011059
0.00011059
0.00011059
0.00011059
9.30049e-05
0.000106692
0.000106014
9.17552e-05
0.000105687
0.00011059
0.00011059
0.00011059
0.00011059
0.00011059
0.00011059
1.4313e-05
3.69095e-05
5.20516e-05
8.77847e-05
9.30049e-05
0.000106692
0.000106014
9.17553e-05
0.000105687
0.000110515
0.000109782
0.00011059
0.00011059
0.00011059
0.00011059
0.00011059
0.00011059
0.00011059
0.00011059
0.00011059
0.00011059
0.00011059
0.00011059
0.00011059
0.00011059
0.00011059
0.00011059
0.00011059
0.00011059
0.00011059
0.00011059
0.00011059
0.00011059
0.00011059
0.00010978
0.00011059
1.4313e-05
3.69095e-05
9.3005e-05
0.000106692
0.000106014
9.17553e-05
0.000105687
5.20516e-05
8.77847e-05
5.20038e-05
8.77558e-05
0.000110515
3.6273e-05
0.000110515
0.00011059
0.00011059
0.00011059
0.00011059
0.000109782
0.00011059
0.00011059
0.00011059
0.00011059
0.00011059
0.00011059
0.00011059
0.00011059
0.00011059
0.00011059
0.00011059
0.00011059
0.00011059
0.00011059
0.00011059
0.00011059
0.00011059
0.00011059
0.00011059
0.00011059
0.00011059
0.00011059
1.43131e-05
3.69097e-05
5.20518e-05
8.77848e-05
0.000110515
0.000110589
0.00011059
0.00011059
0.00011059
0.00011059
0.00011059
0.00011059
0.00011059
0.000110589
0.00011059
0.00011059
0.00011059
0.00011059
0.00011059
0.00011059
0.00011059
0.00011059
0.00011059
0.00011059
0.00011059
0.00011059
0.000110589
0.00011059
0.000110569
0.00011059
0.00011059
0.00011059
0.00011059
0.00011059
0.00011059
0.00011059
0.00011059
0.00011059
0.000110589
0.00011059
0.000110569
0.00011059
0.00011059
0.00011059
0.00011059
0.00011059
0.00011059
0.000110589
0.00011059
0.00011059
0.00011059
0.00011059
0.00011059
0.00011059
0.000110589
0.00011059
0.000110569
0.00011059
0.00011059
0.00011059
0.000110589
0.00011059
0.00011059
0.00011059
0.00011059
0.00011059
0.00011059
0.00011059
0.00011059
0.00011059
0.00011059
0.00011059
0.00011059
0.000110589
0.000106573